
KNOT1
tra    1  0.0000E+00  0.0000E+00  0.0000E+00
rot 1222  0.0000E+00  0.0000E+00  0.0000E+00
exp 1223  0.2649E-06

KNOT1
tra    2  0.0000E+00  0.0000E+00  0.0000E+00
rot 1230  0.0000E+00  0.0000E+00  0.0000E+00
exp 1231  0.2943E-06

KNOT1
tra    3  0.0000E+00  0.0000E+00  0.0000E+00
rot 1238  0.0000E+00  0.0000E+00  0.0000E+00
exp 1239  0.3202E-06

KNOT1
tra    4  0.0000E+00  0.0000E+00  0.0000E+00
rot 1246  0.0000E+00  0.0000E+00  0.0000E+00
exp 1247  0.3088E-06

KNOT1
tra    5  0.0000E+00  0.0000E+00  0.0000E+00
rot 1254  0.0000E+00  0.0000E+00  0.0000E+00
exp 1255  0.3206E-06

KNOT1
tra    6  0.0000E+00  0.0000E+00  0.0000E+00
rot 1262  0.0000E+00  0.0000E+00  0.0000E+00
exp 1263  0.3089E-06

KNOT1
tra    7  0.0000E+00  0.0000E+00  0.0000E+00
rot 1270  0.0000E+00  0.0000E+00  0.0000E+00
exp 1271  0.3237E-06

KNOT1
tra    8  0.0000E+00  0.0000E+00  0.0000E+00
rot 1278  0.0000E+00  0.0000E+00  0.0000E+00
exp 1279  0.3012E-06

KNOT1
tra    9  0.0000E+00  0.0000E+00  0.0000E+00
rot 1286  0.0000E+00  0.0000E+00  0.0000E+00
exp 1287  0.2447E-06

 displacements (vx,vy,vz) for set NMIDSPAN and time  0.1000000E+01

       601 -5.000066E-08 -1.662401E-08 -8.635441E-02
       602 -4.853655E-08 -2.165101E-08 -9.069116E-02
       603 -4.727150E-08 -2.673593E-08 -9.538782E-02
       604 -4.617496E-08 -3.185214E-08 -1.004952E-01
       605 -4.524775E-08 -3.698281E-08 -1.060656E-01
       606 -4.447884E-08 -4.211408E-08 -1.121398E-01
       607 -4.386161E-08 -4.723450E-08 -1.187669E-01
       608 -4.338680E-08 -5.232894E-08 -1.259871E-01
       609 -4.303460E-08 -5.737599E-08 -1.338627E-01

 forces (fx,fy,fz) for set NMIDSPAN and time  0.1000000E+01

       601  3.168313E-08  3.247962E-08  2.777777E+01
       602 -5.416041E-08 -4.212734E-08 -1.111111E+02
       603  9.312502E-08  5.591401E-08  5.555554E+01
       604 -5.480251E-08  5.972925E-08 -1.111111E+02
       605 -6.840749E-08  4.527435E-08  5.555553E+01
       606  5.390757E-08  3.901505E-08 -1.111111E+02
       607 -3.315407E-08  2.160192E-08  5.555556E+01
       608  3.516288E-08 -4.897265E-08 -1.111111E+02
       609  4.483439E-08 -2.957717E-08  2.777777E+01
