    1C
    1UUSER                                                              
    1UDATE              18.january.2014                                 
    1UTIME              22:32:21                                        
    1UHOST                                                              
    1UPGM               CalculiX                                        
    1UDIR                                                               
    1UDBN                                                               
    2C                           419                                     1
 -1      1219 0.00000E+00 0.00000E+00-4.00000E-03
 -1      1220 0.00000E+00 0.00000E+00 0.00000E+00
 -1      1221 0.00000E+00 0.00000E+00 4.00000E-03
 -1      1227 0.00000E+00 5.00000E-02-4.00000E-03
 -1      1229 0.00000E+00 5.00000E-02 4.00000E-03
 -1      1235 0.00000E+00 1.00000E-01-4.00000E-03
 -1      1236 0.00000E+00 1.00000E-01 0.00000E+00
 -1      1237 0.00000E+00 1.00000E-01 4.00000E-03
 -1      1243 0.00000E+00 1.50000E-01-4.00000E-03
 -1      1245 0.00000E+00 1.50000E-01 4.00000E-03
 -1      1251 0.00000E+00 2.00000E-01-4.00000E-03
 -1      1252 0.00000E+00 2.00000E-01 0.00000E+00
 -1      1253 0.00000E+00 2.00000E-01 4.00000E-03
 -1      1259 0.00000E+00 2.50000E-01-4.00000E-03
 -1      1261 0.00000E+00 2.50000E-01 4.00000E-03
 -1      1267 0.00000E+00 3.00000E-01-4.00000E-03
 -1      1268 0.00000E+00 3.00000E-01 0.00000E+00
 -1      1269 0.00000E+00 3.00000E-01 4.00000E-03
 -1      1275 0.00000E+00 3.50000E-01-4.00000E-03
 -1      1277 0.00000E+00 3.50000E-01 4.00000E-03
 -1      1283 0.00000E+00 4.00000E-01-4.00000E-03
 -1      1284 0.00000E+00 4.00000E-01 0.00000E+00
 -1      1285 0.00000E+00 4.00000E-01 4.00000E-03
 -1      1291 4.16667E-02 2.40417E-02-4.00000E-03
 -1      1293 4.16667E-02 2.40417E-02 4.00000E-03
 -1      1294 4.16667E-02 1.24042E-01-4.00000E-03
 -1      1296 4.16667E-02 1.24042E-01 4.00000E-03
 -1      1297 4.16667E-02 2.24042E-01-4.00000E-03
 -1      1299 4.16667E-02 2.24042E-01 4.00000E-03
 -1      1300 4.16667E-02 3.24042E-01-4.00000E-03
 -1      1302 4.16667E-02 3.24042E-01 4.00000E-03
 -1      1303 4.16667E-02 4.24042E-01-4.00000E-03
 -1      1305 4.16667E-02 4.24042E-01 4.00000E-03
 -1      1306 8.33333E-02 4.80833E-02-4.00000E-03
 -1      1307 8.33333E-02 4.80833E-02 0.00000E+00
 -1      1308 8.33333E-02 4.80833E-02 4.00000E-03
 -1      1309 8.33333E-02 9.80833E-02-4.00000E-03
 -1      1311 8.33333E-02 9.80833E-02 4.00000E-03
 -1      1312 8.33333E-02 1.48083E-01-4.00000E-03
 -1      1313 8.33333E-02 1.48083E-01 0.00000E+00
 -1      1314 8.33333E-02 1.48083E-01 4.00000E-03
 -1      1315 8.33333E-02 1.98083E-01-4.00000E-03
 -1      1317 8.33333E-02 1.98083E-01 4.00000E-03
 -1      1318 8.33333E-02 2.48083E-01-4.00000E-03
 -1      1319 8.33333E-02 2.48083E-01 0.00000E+00
 -1      1320 8.33333E-02 2.48083E-01 4.00000E-03
 -1      1321 8.33333E-02 2.98083E-01-4.00000E-03
 -1      1323 8.33333E-02 2.98083E-01 4.00000E-03
 -1      1324 8.33333E-02 3.48083E-01-4.00000E-03
 -1      1325 8.33333E-02 3.48083E-01 0.00000E+00
 -1      1326 8.33333E-02 3.48083E-01 4.00000E-03
 -1      1327 8.33333E-02 3.98083E-01-4.00000E-03
 -1      1329 8.33333E-02 3.98083E-01 4.00000E-03
 -1      1330 8.33333E-02 4.48083E-01-4.00000E-03
 -1      1331 8.33333E-02 4.48083E-01 0.00000E+00
 -1      1332 8.33333E-02 4.48083E-01 4.00000E-03
 -1      1333 1.25000E-01 7.21250E-02-4.00000E-03
 -1      1335 1.25000E-01 7.21250E-02 4.00000E-03
 -1      1336 1.25000E-01 1.72125E-01-4.00000E-03
 -1      1338 1.25000E-01 1.72125E-01 4.00000E-03
 -1      1339 1.25000E-01 2.72125E-01-4.00000E-03
 -1      1341 1.25000E-01 2.72125E-01 4.00000E-03
 -1      1342 1.25000E-01 3.72125E-01-4.00000E-03
 -1      1344 1.25000E-01 3.72125E-01 4.00000E-03
 -1      1345 1.25000E-01 4.72125E-01-4.00000E-03
 -1      1347 1.25000E-01 4.72125E-01 4.00000E-03
 -1      1348 1.66667E-01 9.61667E-02-4.00000E-03
 -1      1349 1.66667E-01 9.61667E-02 0.00000E+00
 -1      1350 1.66667E-01 9.61667E-02 4.00000E-03
 -1      1351 1.66667E-01 1.46167E-01-4.00000E-03
 -1      1353 1.66667E-01 1.46167E-01 4.00000E-03
 -1      1354 1.66667E-01 1.96167E-01-4.00000E-03
 -1      1355 1.66667E-01 1.96167E-01 0.00000E+00
 -1      1356 1.66667E-01 1.96167E-01 4.00000E-03
 -1      1357 1.66667E-01 2.46167E-01-4.00000E-03
 -1      1359 1.66667E-01 2.46167E-01 4.00000E-03
 -1      1360 1.66667E-01 2.96167E-01-4.00000E-03
 -1      1361 1.66667E-01 2.96167E-01 0.00000E+00
 -1      1362 1.66667E-01 2.96167E-01 4.00000E-03
 -1      1363 1.66667E-01 3.46167E-01-4.00000E-03
 -1      1365 1.66667E-01 3.46167E-01 4.00000E-03
 -1      1366 1.66667E-01 3.96167E-01-4.00000E-03
 -1      1367 1.66667E-01 3.96167E-01 0.00000E+00
 -1      1368 1.66667E-01 3.96167E-01 4.00000E-03
 -1      1369 1.66667E-01 4.46167E-01-4.00000E-03
 -1      1371 1.66667E-01 4.46167E-01 4.00000E-03
 -1      1372 1.66667E-01 4.96167E-01-4.00000E-03
 -1      1373 1.66667E-01 4.96167E-01 0.00000E+00
 -1      1374 1.66667E-01 4.96167E-01 4.00000E-03
 -1      1375 2.08333E-01 1.20208E-01-4.00000E-03
 -1      1377 2.08333E-01 1.20208E-01 4.00000E-03
 -1      1378 2.08333E-01 2.20208E-01-4.00000E-03
 -1      1380 2.08333E-01 2.20208E-01 4.00000E-03
 -1      1381 2.08333E-01 3.20208E-01-4.00000E-03
 -1      1383 2.08333E-01 3.20208E-01 4.00000E-03
 -1      1384 2.08333E-01 4.20208E-01-4.00000E-03
 -1      1386 2.08333E-01 4.20208E-01 4.00000E-03
 -1      1387 2.08333E-01 5.20208E-01-4.00000E-03
 -1      1389 2.08333E-01 5.20208E-01 4.00000E-03
 -1      1390 2.50000E-01 1.44250E-01-4.00000E-03
 -1      1391 2.50000E-01 1.44250E-01 0.00000E+00
 -1      1392 2.50000E-01 1.44250E-01 4.00000E-03
 -1      1393 2.50000E-01 1.94250E-01-4.00000E-03
 -1      1395 2.50000E-01 1.94250E-01 4.00000E-03
 -1      1396 2.50000E-01 2.44250E-01-4.00000E-03
 -1      1397 2.50000E-01 2.44250E-01 0.00000E+00
 -1      1398 2.50000E-01 2.44250E-01 4.00000E-03
 -1      1399 2.50000E-01 2.94250E-01-4.00000E-03
 -1      1401 2.50000E-01 2.94250E-01 4.00000E-03
 -1      1402 2.50000E-01 3.44250E-01-4.00000E-03
 -1      1403 2.50000E-01 3.44250E-01 0.00000E+00
 -1      1404 2.50000E-01 3.44250E-01 4.00000E-03
 -1      1405 2.50000E-01 3.94250E-01-4.00000E-03
 -1      1407 2.50000E-01 3.94250E-01 4.00000E-03
 -1      1408 2.50000E-01 4.44250E-01-4.00000E-03
 -1      1409 2.50000E-01 4.44250E-01 0.00000E+00
 -1      1410 2.50000E-01 4.44250E-01 4.00000E-03
 -1      1411 2.50000E-01 4.94250E-01-4.00000E-03
 -1      1413 2.50000E-01 4.94250E-01 4.00000E-03
 -1      1414 2.50000E-01 5.44250E-01-4.00000E-03
 -1      1415 2.50000E-01 5.44250E-01 0.00000E+00
 -1      1416 2.50000E-01 5.44250E-01 4.00000E-03
 -1      1417 2.91667E-01 1.68292E-01-4.00000E-03
 -1      1419 2.91667E-01 1.68292E-01 4.00000E-03
 -1      1420 2.91667E-01 2.68292E-01-4.00000E-03
 -1      1422 2.91667E-01 2.68292E-01 4.00000E-03
 -1      1423 2.91667E-01 3.68292E-01-4.00000E-03
 -1      1425 2.91667E-01 3.68292E-01 4.00000E-03
 -1      1426 2.91667E-01 4.68292E-01-4.00000E-03
 -1      1428 2.91667E-01 4.68292E-01 4.00000E-03
 -1      1429 2.91667E-01 5.68292E-01-4.00000E-03
 -1      1431 2.91667E-01 5.68292E-01 4.00000E-03
 -1      1432 3.33333E-01 1.92333E-01-4.00000E-03
 -1      1433 3.33333E-01 1.92333E-01 0.00000E+00
 -1      1434 3.33333E-01 1.92333E-01 4.00000E-03
 -1      1435 3.33333E-01 2.42333E-01-4.00000E-03
 -1      1437 3.33333E-01 2.42333E-01 4.00000E-03
 -1      1438 3.33333E-01 2.92333E-01-4.00000E-03
 -1      1439 3.33333E-01 2.92333E-01 0.00000E+00
 -1      1440 3.33333E-01 2.92333E-01 4.00000E-03
 -1      1441 3.33333E-01 3.42333E-01-4.00000E-03
 -1      1443 3.33333E-01 3.42333E-01 4.00000E-03
 -1      1444 3.33333E-01 3.92333E-01-4.00000E-03
 -1      1445 3.33333E-01 3.92333E-01 0.00000E+00
 -1      1446 3.33333E-01 3.92333E-01 4.00000E-03
 -1      1447 3.33333E-01 4.42333E-01-4.00000E-03
 -1      1449 3.33333E-01 4.42333E-01 4.00000E-03
 -1      1450 3.33333E-01 4.92333E-01-4.00000E-03
 -1      1451 3.33333E-01 4.92333E-01 0.00000E+00
 -1      1452 3.33333E-01 4.92333E-01 4.00000E-03
 -1      1453 3.33333E-01 5.42333E-01-4.00000E-03
 -1      1455 3.33333E-01 5.42333E-01 4.00000E-03
 -1      1456 3.33333E-01 5.92333E-01-4.00000E-03
 -1      1457 3.33333E-01 5.92333E-01 0.00000E+00
 -1      1458 3.33333E-01 5.92333E-01 4.00000E-03
 -1      1459 3.75000E-01 2.16375E-01-4.00000E-03
 -1      1461 3.75000E-01 2.16375E-01 4.00000E-03
 -1      1462 3.75000E-01 3.16375E-01-4.00000E-03
 -1      1464 3.75000E-01 3.16375E-01 4.00000E-03
 -1      1465 3.75000E-01 4.16375E-01-4.00000E-03
 -1      1467 3.75000E-01 4.16375E-01 4.00000E-03
 -1      1468 3.75000E-01 5.16375E-01-4.00000E-03
 -1      1470 3.75000E-01 5.16375E-01 4.00000E-03
 -1      1471 3.75000E-01 6.16375E-01-4.00000E-03
 -1      1473 3.75000E-01 6.16375E-01 4.00000E-03
 -1      1474 4.16667E-01 2.40417E-01-4.00000E-03
 -1      1475 4.16667E-01 2.40417E-01 0.00000E+00
 -1      1476 4.16667E-01 2.40417E-01 4.00000E-03
 -1      1477 4.16667E-01 2.90417E-01-4.00000E-03
 -1      1479 4.16667E-01 2.90417E-01 4.00000E-03
 -1      1480 4.16667E-01 3.40417E-01-4.00000E-03
 -1      1481 4.16667E-01 3.40417E-01 0.00000E+00
 -1      1482 4.16667E-01 3.40417E-01 4.00000E-03
 -1      1483 4.16667E-01 3.90417E-01-4.00000E-03
 -1      1485 4.16667E-01 3.90417E-01 4.00000E-03
 -1      1486 4.16667E-01 4.40417E-01-4.00000E-03
 -1      1487 4.16667E-01 4.40417E-01 0.00000E+00
 -1      1488 4.16667E-01 4.40417E-01 4.00000E-03
 -1      1489 4.16667E-01 4.90417E-01-4.00000E-03
 -1      1491 4.16667E-01 4.90417E-01 4.00000E-03
 -1      1492 4.16667E-01 5.40417E-01-4.00000E-03
 -1      1493 4.16667E-01 5.40417E-01 0.00000E+00
 -1      1494 4.16667E-01 5.40417E-01 4.00000E-03
 -1      1495 4.16667E-01 5.90417E-01-4.00000E-03
 -1      1497 4.16667E-01 5.90417E-01 4.00000E-03
 -1      1498 4.16667E-01 6.40417E-01-4.00000E-03
 -1      1499 4.16667E-01 6.40417E-01 0.00000E+00
 -1      1500 4.16667E-01 6.40417E-01 4.00000E-03
 -1      1501 4.58333E-01 2.64458E-01-4.00000E-03
 -1      1503 4.58333E-01 2.64458E-01 4.00000E-03
 -1      1504 4.58333E-01 3.64458E-01-4.00000E-03
 -1      1506 4.58333E-01 3.64458E-01 4.00000E-03
 -1      1507 4.58333E-01 4.64458E-01-4.00000E-03
 -1      1509 4.58333E-01 4.64458E-01 4.00000E-03
 -1      1510 4.58333E-01 5.64458E-01-4.00000E-03
 -1      1512 4.58333E-01 5.64458E-01 4.00000E-03
 -1      1513 4.58333E-01 6.64458E-01-4.00000E-03
 -1      1515 4.58333E-01 6.64458E-01 4.00000E-03
 -1      1516 5.00000E-01 2.88500E-01-4.00000E-03
 -1      1517 5.00000E-01 2.88500E-01 0.00000E+00
 -1      1518 5.00000E-01 2.88500E-01 4.00000E-03
 -1      1519 5.00000E-01 3.38500E-01-4.00000E-03
 -1      1521 5.00000E-01 3.38500E-01 4.00000E-03
 -1      1522 5.00000E-01 3.88500E-01-4.00000E-03
 -1      1523 5.00000E-01 3.88500E-01 0.00000E+00
 -1      1524 5.00000E-01 3.88500E-01 4.00000E-03
 -1      1525 5.00000E-01 4.38500E-01-4.00000E-03
 -1      1527 5.00000E-01 4.38500E-01 4.00000E-03
 -1      1528 5.00000E-01 4.88500E-01-4.00000E-03
 -1      1529 5.00000E-01 4.88500E-01 0.00000E+00
 -1      1530 5.00000E-01 4.88500E-01 4.00000E-03
 -1      1531 5.00000E-01 5.38500E-01-4.00000E-03
 -1      1533 5.00000E-01 5.38500E-01 4.00000E-03
 -1      1534 5.00000E-01 5.88500E-01-4.00000E-03
 -1      1535 5.00000E-01 5.88500E-01 0.00000E+00
 -1      1536 5.00000E-01 5.88500E-01 4.00000E-03
 -1      1537 5.00000E-01 6.38500E-01-4.00000E-03
 -1      1539 5.00000E-01 6.38500E-01 4.00000E-03
 -1      1540 5.00000E-01 6.88500E-01-4.00000E-03
 -1      1541 5.00000E-01 6.88500E-01 0.00000E+00
 -1      1542 5.00000E-01 6.88500E-01 4.00000E-03
 -1      1543 5.41667E-01 3.12542E-01-4.00000E-03
 -1      1545 5.41667E-01 3.12542E-01 4.00000E-03
 -1      1546 5.41667E-01 4.12542E-01-4.00000E-03
 -1      1548 5.41667E-01 4.12542E-01 4.00000E-03
 -1      1549 5.41667E-01 5.12542E-01-4.00000E-03
 -1      1551 5.41667E-01 5.12542E-01 4.00000E-03
 -1      1552 5.41667E-01 6.12542E-01-4.00000E-03
 -1      1554 5.41667E-01 6.12542E-01 4.00000E-03
 -1      1555 5.41667E-01 7.12542E-01-4.00000E-03
 -1      1557 5.41667E-01 7.12542E-01 4.00000E-03
 -1      1558 5.83333E-01 3.36583E-01-4.00000E-03
 -1      1559 5.83333E-01 3.36583E-01 0.00000E+00
 -1      1560 5.83333E-01 3.36583E-01 4.00000E-03
 -1      1561 5.83333E-01 3.86583E-01-4.00000E-03
 -1      1563 5.83333E-01 3.86583E-01 4.00000E-03
 -1      1564 5.83333E-01 4.36583E-01-4.00000E-03
 -1      1565 5.83333E-01 4.36583E-01 0.00000E+00
 -1      1566 5.83333E-01 4.36583E-01 4.00000E-03
 -1      1567 5.83333E-01 4.86583E-01-4.00000E-03
 -1      1569 5.83333E-01 4.86583E-01 4.00000E-03
 -1      1570 5.83333E-01 5.36583E-01-4.00000E-03
 -1      1571 5.83333E-01 5.36583E-01 0.00000E+00
 -1      1572 5.83333E-01 5.36583E-01 4.00000E-03
 -1      1573 5.83333E-01 5.86583E-01-4.00000E-03
 -1      1575 5.83333E-01 5.86583E-01 4.00000E-03
 -1      1576 5.83333E-01 6.36583E-01-4.00000E-03
 -1      1577 5.83333E-01 6.36583E-01 0.00000E+00
 -1      1578 5.83333E-01 6.36583E-01 4.00000E-03
 -1      1579 5.83333E-01 6.86583E-01-4.00000E-03
 -1      1581 5.83333E-01 6.86583E-01 4.00000E-03
 -1      1582 5.83333E-01 7.36583E-01-4.00000E-03
 -1      1583 5.83333E-01 7.36583E-01 0.00000E+00
 -1      1584 5.83333E-01 7.36583E-01 4.00000E-03
 -1      1585 6.25000E-01 3.60625E-01-4.00000E-03
 -1      1587 6.25000E-01 3.60625E-01 4.00000E-03
 -1      1588 6.25000E-01 4.60625E-01-4.00000E-03
 -1      1590 6.25000E-01 4.60625E-01 4.00000E-03
 -1      1591 6.25000E-01 5.60625E-01-4.00000E-03
 -1      1593 6.25000E-01 5.60625E-01 4.00000E-03
 -1      1594 6.25000E-01 6.60625E-01-4.00000E-03
 -1      1596 6.25000E-01 6.60625E-01 4.00000E-03
 -1      1597 6.25000E-01 7.60625E-01-4.00000E-03
 -1      1599 6.25000E-01 7.60625E-01 4.00000E-03
 -1      1600 6.66667E-01 3.84667E-01-4.00000E-03
 -1      1601 6.66667E-01 3.84667E-01 0.00000E+00
 -1      1602 6.66667E-01 3.84667E-01 4.00000E-03
 -1      1603 6.66667E-01 4.34667E-01-4.00000E-03
 -1      1605 6.66667E-01 4.34667E-01 4.00000E-03
 -1      1606 6.66667E-01 4.84667E-01-4.00000E-03
 -1      1607 6.66667E-01 4.84667E-01 0.00000E+00
 -1      1608 6.66667E-01 4.84667E-01 4.00000E-03
 -1      1609 6.66667E-01 5.34667E-01-4.00000E-03
 -1      1611 6.66667E-01 5.34667E-01 4.00000E-03
 -1      1612 6.66667E-01 5.84667E-01-4.00000E-03
 -1      1613 6.66667E-01 5.84667E-01 0.00000E+00
 -1      1614 6.66667E-01 5.84667E-01 4.00000E-03
 -1      1615 6.66667E-01 6.34667E-01-4.00000E-03
 -1      1617 6.66667E-01 6.34667E-01 4.00000E-03
 -1      1618 6.66667E-01 6.84667E-01-4.00000E-03
 -1      1619 6.66667E-01 6.84667E-01 0.00000E+00
 -1      1620 6.66667E-01 6.84667E-01 4.00000E-03
 -1      1621 6.66667E-01 7.34667E-01-4.00000E-03
 -1      1623 6.66667E-01 7.34667E-01 4.00000E-03
 -1      1624 6.66667E-01 7.84667E-01-4.00000E-03
 -1      1625 6.66667E-01 7.84667E-01 0.00000E+00
 -1      1626 6.66667E-01 7.84667E-01 4.00000E-03
 -1      1627 7.08333E-01 4.08708E-01-4.00000E-03
 -1      1629 7.08333E-01 4.08708E-01 4.00000E-03
 -1      1630 7.08333E-01 5.08708E-01-4.00000E-03
 -1      1632 7.08333E-01 5.08708E-01 4.00000E-03
 -1      1633 7.08333E-01 6.08708E-01-4.00000E-03
 -1      1635 7.08333E-01 6.08708E-01 4.00000E-03
 -1      1636 7.08333E-01 7.08708E-01-4.00000E-03
 -1      1638 7.08333E-01 7.08708E-01 4.00000E-03
 -1      1639 7.08333E-01 8.08708E-01-4.00000E-03
 -1      1641 7.08333E-01 8.08708E-01 4.00000E-03
 -1      1642 7.50000E-01 4.32750E-01-4.00000E-03
 -1      1643 7.50000E-01 4.32750E-01 0.00000E+00
 -1      1644 7.50000E-01 4.32750E-01 4.00000E-03
 -1      1645 7.50000E-01 4.82750E-01-4.00000E-03
 -1      1647 7.50000E-01 4.82750E-01 4.00000E-03
 -1      1648 7.50000E-01 5.32750E-01-4.00000E-03
 -1      1649 7.50000E-01 5.32750E-01 0.00000E+00
 -1      1650 7.50000E-01 5.32750E-01 4.00000E-03
 -1      1651 7.50000E-01 5.82750E-01-4.00000E-03
 -1      1653 7.50000E-01 5.82750E-01 4.00000E-03
 -1      1654 7.50000E-01 6.32750E-01-4.00000E-03
 -1      1655 7.50000E-01 6.32750E-01 0.00000E+00
 -1      1656 7.50000E-01 6.32750E-01 4.00000E-03
 -1      1657 7.50000E-01 6.82750E-01-4.00000E-03
 -1      1659 7.50000E-01 6.82750E-01 4.00000E-03
 -1      1660 7.50000E-01 7.32750E-01-4.00000E-03
 -1      1661 7.50000E-01 7.32750E-01 0.00000E+00
 -1      1662 7.50000E-01 7.32750E-01 4.00000E-03
 -1      1663 7.50000E-01 7.82750E-01-4.00000E-03
 -1      1665 7.50000E-01 7.82750E-01 4.00000E-03
 -1      1666 7.50000E-01 8.32750E-01-4.00000E-03
 -1      1667 7.50000E-01 8.32750E-01 0.00000E+00
 -1      1668 7.50000E-01 8.32750E-01 4.00000E-03
 -1      1669 7.91667E-01 4.56792E-01-4.00000E-03
 -1      1671 7.91667E-01 4.56792E-01 4.00000E-03
 -1      1672 7.91667E-01 5.56792E-01-4.00000E-03
 -1      1674 7.91667E-01 5.56792E-01 4.00000E-03
 -1      1675 7.91667E-01 6.56792E-01-4.00000E-03
 -1      1677 7.91667E-01 6.56792E-01 4.00000E-03
 -1      1678 7.91667E-01 7.56792E-01-4.00000E-03
 -1      1680 7.91667E-01 7.56792E-01 4.00000E-03
 -1      1681 7.91667E-01 8.56792E-01-4.00000E-03
 -1      1683 7.91667E-01 8.56792E-01 4.00000E-03
 -1      1684 8.33333E-01 4.80833E-01-4.00000E-03
 -1      1685 8.33333E-01 4.80833E-01 0.00000E+00
 -1      1686 8.33333E-01 4.80833E-01 4.00000E-03
 -1      1687 8.33333E-01 5.30833E-01-4.00000E-03
 -1      1689 8.33333E-01 5.30833E-01 4.00000E-03
 -1      1690 8.33333E-01 5.80833E-01-4.00000E-03
 -1      1691 8.33333E-01 5.80833E-01 0.00000E+00
 -1      1692 8.33333E-01 5.80833E-01 4.00000E-03
 -1      1693 8.33333E-01 6.30833E-01-4.00000E-03
 -1      1695 8.33333E-01 6.30833E-01 4.00000E-03
 -1      1696 8.33333E-01 6.80833E-01-4.00000E-03
 -1      1697 8.33333E-01 6.80833E-01 0.00000E+00
 -1      1698 8.33333E-01 6.80833E-01 4.00000E-03
 -1      1699 8.33333E-01 7.30833E-01-4.00000E-03
 -1      1701 8.33333E-01 7.30833E-01 4.00000E-03
 -1      1702 8.33333E-01 7.80833E-01-4.00000E-03
 -1      1703 8.33333E-01 7.80833E-01 0.00000E+00
 -1      1704 8.33333E-01 7.80833E-01 4.00000E-03
 -1      1705 8.33333E-01 8.30833E-01-4.00000E-03
 -1      1707 8.33333E-01 8.30833E-01 4.00000E-03
 -1      1708 8.33333E-01 8.80833E-01-4.00000E-03
 -1      1709 8.33333E-01 8.80833E-01 0.00000E+00
 -1      1710 8.33333E-01 8.80833E-01 4.00000E-03
 -1      1711 8.75000E-01 5.04875E-01-4.00000E-03
 -1      1713 8.75000E-01 5.04875E-01 4.00000E-03
 -1      1714 8.75000E-01 6.04875E-01-4.00000E-03
 -1      1716 8.75000E-01 6.04875E-01 4.00000E-03
 -1      1717 8.75000E-01 7.04875E-01-4.00000E-03
 -1      1719 8.75000E-01 7.04875E-01 4.00000E-03
 -1      1720 8.75000E-01 8.04875E-01-4.00000E-03
 -1      1722 8.75000E-01 8.04875E-01 4.00000E-03
 -1      1723 8.75000E-01 9.04875E-01-4.00000E-03
 -1      1725 8.75000E-01 9.04875E-01 4.00000E-03
 -1      1726 9.16667E-01 5.28917E-01-4.00000E-03
 -1      1727 9.16667E-01 5.28917E-01 0.00000E+00
 -1      1728 9.16667E-01 5.28917E-01 4.00000E-03
 -1      1729 9.16667E-01 5.78917E-01-4.00000E-03
 -1      1731 9.16667E-01 5.78917E-01 4.00000E-03
 -1      1732 9.16667E-01 6.28917E-01-4.00000E-03
 -1      1733 9.16667E-01 6.28917E-01 0.00000E+00
 -1      1734 9.16667E-01 6.28917E-01 4.00000E-03
 -1      1735 9.16667E-01 6.78917E-01-4.00000E-03
 -1      1737 9.16667E-01 6.78917E-01 4.00000E-03
 -1      1738 9.16667E-01 7.28917E-01-4.00000E-03
 -1      1739 9.16667E-01 7.28917E-01 0.00000E+00
 -1      1740 9.16667E-01 7.28917E-01 4.00000E-03
 -1      1741 9.16667E-01 7.78917E-01-4.00000E-03
 -1      1743 9.16667E-01 7.78917E-01 4.00000E-03
 -1      1744 9.16667E-01 8.28917E-01-4.00000E-03
 -1      1745 9.16667E-01 8.28917E-01 0.00000E+00
 -1      1746 9.16667E-01 8.28917E-01 4.00000E-03
 -1      1747 9.16667E-01 8.78917E-01-4.00000E-03
 -1      1749 9.16667E-01 8.78917E-01 4.00000E-03
 -1      1750 9.16667E-01 9.28917E-01-4.00000E-03
 -1      1751 9.16667E-01 9.28917E-01 0.00000E+00
 -1      1752 9.16667E-01 9.28917E-01 4.00000E-03
 -1      1753 9.58333E-01 5.52958E-01-4.00000E-03
 -1      1755 9.58333E-01 5.52958E-01 4.00000E-03
 -1      1756 9.58333E-01 6.52958E-01-4.00000E-03
 -1      1758 9.58333E-01 6.52958E-01 4.00000E-03
 -1      1759 9.58333E-01 7.52958E-01-4.00000E-03
 -1      1761 9.58333E-01 7.52958E-01 4.00000E-03
 -1      1762 9.58333E-01 8.52958E-01-4.00000E-03
 -1      1764 9.58333E-01 8.52958E-01 4.00000E-03
 -1      1765 9.58333E-01 9.52958E-01-4.00000E-03
 -1      1767 9.58333E-01 9.52958E-01 4.00000E-03
 -1      1768 1.00000E+00 5.77000E-01-4.00000E-03
 -1      1769 1.00000E+00 5.77000E-01 0.00000E+00
 -1      1770 1.00000E+00 5.77000E-01 4.00000E-03
 -1      1771 1.00000E+00 6.27000E-01-4.00000E-03
 -1      1773 1.00000E+00 6.27000E-01 4.00000E-03
 -1      1774 1.00000E+00 6.77000E-01-4.00000E-03
 -1      1775 1.00000E+00 6.77000E-01 0.00000E+00
 -1      1776 1.00000E+00 6.77000E-01 4.00000E-03
 -1      1777 1.00000E+00 7.27000E-01-4.00000E-03
 -1      1779 1.00000E+00 7.27000E-01 4.00000E-03
 -1      1780 1.00000E+00 7.77000E-01-4.00000E-03
 -1      1781 1.00000E+00 7.77000E-01 0.00000E+00
 -1      1782 1.00000E+00 7.77000E-01 4.00000E-03
 -1      1783 1.00000E+00 8.27000E-01-4.00000E-03
 -1      1785 1.00000E+00 8.27000E-01 4.00000E-03
 -1      1786 1.00000E+00 8.77000E-01-4.00000E-03
 -1      1787 1.00000E+00 8.77000E-01 0.00000E+00
 -1      1788 1.00000E+00 8.77000E-01 4.00000E-03
 -1      1789 1.00000E+00 9.27000E-01-4.00000E-03
 -1      1791 1.00000E+00 9.27000E-01 4.00000E-03
 -1      1792 1.00000E+00 9.77000E-01-4.00000E-03
 -1      1793 1.00000E+00 9.77000E-01 0.00000E+00
 -1      1794 1.00000E+00 9.77000E-01 4.00000E-03
 -3
    3C                            48                                     1
 -1         1    4    0METAL
 -2      1219      1306      1312      1235      1221      1308      1314      1237      1291      1309
 -2      1294      1227      1220      1307      1313      1236      1293      1311      1296      1229
 -1         2    4    0METAL
 -2      1235      1312      1318      1251      1237      1314      1320      1253      1294      1315
 -2      1297      1243      1236      1313      1319      1252      1296      1317      1299      1245
 -1         3    4    0METAL
 -2      1251      1318      1324      1267      1253      1320      1326      1269      1297      1321
 -2      1300      1259      1252      1319      1325      1268      1299      1323      1302      1261
 -1         4    4    0METAL
 -2      1267      1324      1330      1283      1269      1326      1332      1285      1300      1327
 -2      1303      1275      1268      1325      1331      1284      1302      1329      1305      1277
 -1        11    4    0METAL
 -2      1306      1348      1354      1312      1308      1350      1356      1314      1333      1351
 -2      1336      1309      1307      1349      1355      1313      1335      1353      1338      1311
 -1        12    4    0METAL
 -2      1312      1354      1360      1318      1314      1356      1362      1320      1336      1357
 -2      1339      1315      1313      1355      1361      1319      1338      1359      1341      1317
 -1        13    4    0METAL
 -2      1318      1360      1366      1324      1320      1362      1368      1326      1339      1363
 -2      1342      1321      1319      1361      1367      1325      1341      1365      1344      1323
 -1        14    4    0METAL
 -2      1324      1366      1372      1330      1326      1368      1374      1332      1342      1369
 -2      1345      1327      1325      1367      1373      1331      1344      1371      1347      1329
 -1        21    4    0METAL
 -2      1348      1390      1396      1354      1350      1392      1398      1356      1375      1393
 -2      1378      1351      1349      1391      1397      1355      1377      1395      1380      1353
 -1        22    4    0METAL
 -2      1354      1396      1402      1360      1356      1398      1404      1362      1378      1399
 -2      1381      1357      1355      1397      1403      1361      1380      1401      1383      1359
 -1        23    4    0METAL
 -2      1360      1402      1408      1366      1362      1404      1410      1368      1381      1405
 -2      1384      1363      1361      1403      1409      1367      1383      1407      1386      1365
 -1        24    4    0METAL
 -2      1366      1408      1414      1372      1368      1410      1416      1374      1384      1411
 -2      1387      1369      1367      1409      1415      1373      1386      1413      1389      1371
 -1        31    4    0METAL
 -2      1390      1432      1438      1396      1392      1434      1440      1398      1417      1435
 -2      1420      1393      1391      1433      1439      1397      1419      1437      1422      1395
 -1        32    4    0METAL
 -2      1396      1438      1444      1402      1398      1440      1446      1404      1420      1441
 -2      1423      1399      1397      1439      1445      1403      1422      1443      1425      1401
 -1        33    4    0METAL
 -2      1402      1444      1450      1408      1404      1446      1452      1410      1423      1447
 -2      1426      1405      1403      1445      1451      1409      1425      1449      1428      1407
 -1        34    4    0METAL
 -2      1408      1450      1456      1414      1410      1452      1458      1416      1426      1453
 -2      1429      1411      1409      1451      1457      1415      1428      1455      1431      1413
 -1        41    4    0METAL
 -2      1432      1474      1480      1438      1434      1476      1482      1440      1459      1477
 -2      1462      1435      1433      1475      1481      1439      1461      1479      1464      1437
 -1        42    4    0METAL
 -2      1438      1480      1486      1444      1440      1482      1488      1446      1462      1483
 -2      1465      1441      1439      1481      1487      1445      1464      1485      1467      1443
 -1        43    4    0METAL
 -2      1444      1486      1492      1450      1446      1488      1494      1452      1465      1489
 -2      1468      1447      1445      1487      1493      1451      1467      1491      1470      1449
 -1        44    4    0METAL
 -2      1450      1492      1498      1456      1452      1494      1500      1458      1468      1495
 -2      1471      1453      1451      1493      1499      1457      1470      1497      1473      1455
 -1        51    4    0METAL
 -2      1474      1516      1522      1480      1476      1518      1524      1482      1501      1519
 -2      1504      1477      1475      1517      1523      1481      1503      1521      1506      1479
 -1        52    4    0METAL
 -2      1480      1522      1528      1486      1482      1524      1530      1488      1504      1525
 -2      1507      1483      1481      1523      1529      1487      1506      1527      1509      1485
 -1        53    4    0METAL
 -2      1486      1528      1534      1492      1488      1530      1536      1494      1507      1531
 -2      1510      1489      1487      1529      1535      1493      1509      1533      1512      1491
 -1        54    4    0METAL
 -2      1492      1534      1540      1498      1494      1536      1542      1500      1510      1537
 -2      1513      1495      1493      1535      1541      1499      1512      1539      1515      1497
 -1        61    4    0METAL
 -2      1516      1558      1564      1522      1518      1560      1566      1524      1543      1561
 -2      1546      1519      1517      1559      1565      1523      1545      1563      1548      1521
 -1        62    4    0METAL
 -2      1522      1564      1570      1528      1524      1566      1572      1530      1546      1567
 -2      1549      1525      1523      1565      1571      1529      1548      1569      1551      1527
 -1        63    4    0METAL
 -2      1528      1570      1576      1534      1530      1572      1578      1536      1549      1573
 -2      1552      1531      1529      1571      1577      1535      1551      1575      1554      1533
 -1        64    4    0METAL
 -2      1534      1576      1582      1540      1536      1578      1584      1542      1552      1579
 -2      1555      1537      1535      1577      1583      1541      1554      1581      1557      1539
 -1        71    4    0METAL
 -2      1558      1600      1606      1564      1560      1602      1608      1566      1585      1603
 -2      1588      1561      1559      1601      1607      1565      1587      1605      1590      1563
 -1        72    4    0METAL
 -2      1564      1606      1612      1570      1566      1608      1614      1572      1588      1609
 -2      1591      1567      1565      1607      1613      1571      1590      1611      1593      1569
 -1        73    4    0METAL
 -2      1570      1612      1618      1576      1572      1614      1620      1578      1591      1615
 -2      1594      1573      1571      1613      1619      1577      1593      1617      1596      1575
 -1        74    4    0METAL
 -2      1576      1618      1624      1582      1578      1620      1626      1584      1594      1621
 -2      1597      1579      1577      1619      1625      1583      1596      1623      1599      1581
 -1        81    4    0METAL
 -2      1600      1642      1648      1606      1602      1644      1650      1608      1627      1645
 -2      1630      1603      1601      1643      1649      1607      1629      1647      1632      1605
 -1        82    4    0METAL
 -2      1606      1648      1654      1612      1608      1650      1656      1614      1630      1651
 -2      1633      1609      1607      1649      1655      1613      1632      1653      1635      1611
 -1        83    4    0METAL
 -2      1612      1654      1660      1618      1614      1656      1662      1620      1633      1657
 -2      1636      1615      1613      1655      1661      1619      1635      1659      1638      1617
 -1        84    4    0METAL